Unit structure for type 210: N=6 R=50 L=20

    1416 atoms
    1392 bonds
    2232 angles
    864 Dihedrals

    17 atom types
    6 bond types
    26 angle types
    2 Dihedral types

    -466.440000 1399.320000 xlo xhi
    -466.440000 466.440000 ylo yhi
    -466.440000 466.440000 ylo yhi

Masses

	1	94.969600
	2	83.110400
	3	134.122000
	4	125.107800
	5	150.121400
	6	110.096400
	7	134.122000
	8	125.107800
	9	150.121400
	10	110.096400
	11	134.122000
	12	125.107800
	13	150.121400
	14	110.096400
	15	22.989800
	16	24.305000
	17	35.453000

Bond Coeffs

	1	3.899000	0.143403	0.000000	14.340344
	2	3.559000	0.143403	0.000000	14.340344
	3	4.670000	0.143403	0.000000	14.340344
	4	4.189000	0.143403	0.000000	14.340344
	5	4.829000	0.143403	0.000000	14.340344
	6	4.112000	0.143403	0.000000	14.340344

Angle Coeffs

	1	harmonic	47.801147	94.490000
	2	harmonic	47.801147	120.150000
	3	harmonic	47.801147	112.070000
	4	harmonic	47.801147	116.680000
	5	harmonic	47.801147	110.120000
	6	harmonic	47.801147	114.340000
	7	harmonic	47.801147	103.530000
	8	harmonic	47.801147	92.060000
	9	harmonic	47.801147	107.400000
	10	harmonic	47.801147	96.960000
	11	stacking/3spn2	3.439293	3.716000	101.150000	3.000000	6.000000
	12	stacking/3spn2	3.427342	3.675000	85.940000	3.000000	6.000000
	13	stacking/3spn2	3.166826	3.827000	105.260000	3.000000	6.000000
	14	stacking/3spn2	3.467973	3.744000	89.000000	3.000000	6.000000
	15	stacking/3spn2	2.478489	4.238000	101.590000	3.000000	6.000000
	16	stacking/3spn2	3.193117	3.984000	89.500000	3.000000	6.000000
	17	stacking/3spn2	2.471319	4.416000	104.310000	3.000000	6.000000
	18	stacking/3spn2	3.080784	4.141000	91.280000	3.000000	6.000000
	19	stacking/3spn2	3.539675	3.576000	100.890000	3.000000	6.000000
	20	stacking/3spn2	3.721319	3.598000	84.830000	3.000000	6.000000
	21	stacking/3spn2	3.568356	3.664000	105.480000	3.000000	6.000000
	22	stacking/3spn2	3.678298	3.635000	88.280000	3.000000	6.000000
	23	stacking/3spn2	2.729446	4.038000	106.490000	3.000000	6.000000
	24	stacking/3spn2	3.056883	3.798000	93.310000	3.000000	6.000000
	25	stacking/3spn2	2.514340	4.208000	109.540000	3.000000	6.000000
	26	stacking/3spn2	3.164436	3.935000	95.460000	3.000000	6.000000

Dihedral Coeffs

	1	1.434034	-359.170000	0.300000
	2	1.434034	-334.790000	0.300000

Atoms

1	2	-5.7922	-3.9127	50	1	0	0	0.5
2	8	-1.8632	-2.8662	51.008	1	0	0	0.5
3	1	-8.2849	-3.3351	52.474	1	-0.6	0	0.5
4	2	-6.9956	0.23049	53.38	1	0	0	0.5
5	4	-3.2019	-1.2323	54.388	1	0	0	0.5
6	1	-8.6727	2.1629	55.854	1	-0.6	0	0.5
7	2	-5.5338	4.2897	56.76	1	0	0	0.5
8	4	-3.3245	0.87645	57.768	1	0	0	0.5
9	1	-5.7548	6.8389	59.234	1	-0.6	0	0.5
10	2	-1.9653	6.7145	60.14	1	0	0	0.5
11	4	-2.1842	2.6545	61.148	1	0	0	0.5
12	1	-0.64572	8.9068	62.614	1	-0.6	0	0.5
13	2	2.3469	6.5787	63.52	1	0	0	0.5
14	4	-0.21654	3.4227	64.528	1	0	0	0.5
15	1	4.7031	7.5766	65.994	1	-0.6	0	0.5
16	2	5.7558	3.9341	66.9	1	0	0	0.5
17	4	1.8269	2.8877	67.908	1	0	0	0.5
18	1	8.2485	3.3566	69.374	1	-0.6	0	0.5
19	2	6.9592	-0.20903	70.28	1	0	0	0.5
20	4	3.1655	1.2537	71.288	1	0	0	0.5
21	1	8.6364	-2.1415	72.754	1	-0.6	0	0.5
22	2	5.4974	-4.2682	73.66	1	0	0	0.5
23	4	3.2881	-0.85499	74.668	1	0	0	0.5
24	1	5.7184	-6.8175	76.134	1	-0.6	0	0.5
25	2	1.9289	-6.693	77.04	1	0	0	0.5
26	4	2.1478	-2.633	78.048	1	0	0	0.5
27	1	0.60934	-8.8853	79.514	1	-0.6	0	0.5
28	2	-2.3833	-6.5572	80.42	1	0	0	0.5
29	4	0.18016	-3.4013	81.428	1	0	0	0.5
30	1	-4.7395	-7.5552	82.894	1	-0.6	0	0.5
31	2	-5.7922	-3.9127	83.8	1	0	0	0.5
32	6	-2.0481	-2.5502	84.816	1	0	0	0.5
33	1	-8.2849	-3.3351	86.274	1	-0.6	0	0.5
34	2	-6.9956	0.23049	87.18	1	0	0	0.5
35	5	-2.3084	-0.16345	88.274	1	0	0	0.5
36	1	-8.6727	2.1629	89.654	1	-0.6	0	0.5
37	2	-5.5338	4.2897	90.56	1	0	0	0.5
38	4	-3.3245	0.87645	91.568	1	0	0	0.5
39	1	-5.7548	6.8389	93.034	1	-0.6	0	0.5
40	2	-1.9653	6.7145	93.94	1	0	0	0.5
41	3	-1.2413	2.1986	95.016	1	0	0	0.5
42	1	-0.64572	8.9068	96.414	1	-0.6	0	0.5
43	2	2.3469	6.5787	97.32	1	0	0	0.5
44	6	0.11871	3.2757	98.336	1	0	0	0.5
45	1	4.7031	7.5766	99.794	1	-0.6	0	0.5
46	2	5.7558	3.9341	100.7	1	0	0	0.5
47	5	1.7323	1.4978	101.79	1	0	0	0.5
48	1	8.2485	3.3566	103.17	1	-0.6	0	0.5
49	2	6.9592	-0.20903	104.08	1	0	0	0.5
50	3	2.4405	0.49789	105.16	1	0	0	0.5
51	1	8.6364	-2.1415	106.55	1	-0.6	0	0.5
52	2	5.4974	-4.2682	107.46	1	0	0	0.5
53	4	3.2881	-0.85499	108.47	1	0	0	0.5
54	1	5.7184	-6.8175	109.93	1	-0.6	0	0.5
55	2	1.9289	-6.693	110.84	1	0	0	0.5
56	4	2.1478	-2.633	111.85	1	0	0	0.5
57	1	0.60934	-8.8853	113.31	1	-0.6	0	0.5
58	2	-2.3833	-6.5572	114.22	1	0	0	0.5
59	13	-0.56027	-2.2213	115.31	1	0	0	0.5
60	2	-2.3833	6.5787	150.58	2	0	0	0.5
61	10	-0.15509	3.2757	149.56	2	0	0	0.5
62	1	-4.7395	7.5766	148.11	2	-0.6	0	0.5
63	2	-5.7922	3.9341	147.2	2	0	0	0.5
64	4	-1.8632	2.8877	146.19	2	0	0	0.5
65	1	-8.2849	3.3566	144.73	2	-0.6	0	0.5
66	2	-6.9956	-0.20903	143.82	2	0	0	0.5
67	6	-3.1657	0.88947	142.8	2	0	0	0.5
68	1	-8.6727	-2.1415	141.35	2	-0.6	0	0.5
69	2	-5.5338	-4.2682	140.44	2	0	0	0.5
70	3	-2.2937	-1.0404	139.36	2	0	0	0.5
71	1	-5.7548	-6.8175	137.97	2	-0.6	0	0.5
72	2	-1.9653	-6.693	137.06	2	0	0	0.5
73	5	-0.89157	-2.1136	135.97	2	0	0	0.5
74	1	-0.64572	-8.8853	134.59	2	-0.6	0	0.5
75	2	2.3469	-6.5572	133.68	2	0	0	0.5
76	6	0.11871	-3.2543	132.66	2	0	0	0.5
77	1	4.7031	-7.5552	131.21	2	-0.6	0	0.5
78	2	5.7558	-3.9127	130.3	2	0	0	0.5
79	4	1.8269	-2.8662	129.29	2	0	0	0.5
80	1	8.2485	-3.3351	127.83	2	-0.6	0	0.5
81	2	6.9592	0.23049	126.92	2	0	0	0.5
82	5	2.2721	-0.16345	125.83	2	0	0	0.5
83	1	8.6364	2.1629	124.45	2	-0.6	0	0.5
84	2	5.4974	4.2897	123.54	2	0	0	0.5
85	3	2.2573	1.0618	122.46	2	0	0	0.5
86	1	5.7184	6.8389	121.07	2	-0.6	0	0.5
87	2	1.9289	6.7145	120.16	2	0	0	0.5
88	5	0.85518	2.1351	119.07	2	0	0	0.5
89	1	0.60934	8.9068	117.69	2	-0.6	0	0.5
90	2	-2.3833	6.5787	116.78	2	0	0	0.5
91	6	-0.15509	3.2757	115.76	2	0	0	0.5
92	1	-4.7395	7.5766	114.31	2	-0.6	0	0.5
93	2	-5.7922	3.9341	113.4	2	0	0	0.5
94	3	-1.721	1.8501	112.32	2	0	0	0.5
95	1	-8.2849	3.3566	110.93	2	-0.6	0	0.5
96	2	-6.9956	-0.20903	110.02	2	0	0	0.5
97	3	-2.4769	0.49789	108.94	2	0	0	0.5
98	1	-8.6727	-2.1415	107.55	2	-0.6	0	0.5
99	2	-5.5338	-4.2682	106.64	2	0	0	0.5
100	4	-3.3245	-0.85499	105.63	2	0	0	0.5
101	1	-5.7548	-6.8175	104.17	2	-0.6	0	0.5
102	2	-1.9653	-6.693	103.26	2	0	0	0.5
103	6	-1.8266	-2.7112	102.24	2	0	0	0.5
104	1	-0.64572	-8.8853	100.79	2	-0.6	0	0.5
105	2	2.3469	-6.5572	99.88	2	0	0	0.5
106	5	0.52388	-2.2213	98.786	2	0	0	0.5
107	1	4.7031	-7.5552	97.406	2	-0.6	0	0.5
108	2	5.7558	-3.9127	96.5	2	0	0	0.5
109	4	1.8269	-2.8662	95.492	2	0	0	0.5
110	1	8.2485	-3.3351	94.026	2	-0.6	0	0.5
111	2	6.9592	0.23049	93.12	2	0	0	0.5
112	3	2.4405	-0.47643	92.044	2	0	0	0.5
113	1	8.6364	2.1629	90.646	2	-0.6	0	0.5
114	2	5.4974	4.2897	89.74	2	0	0	0.5
115	6	3.0447	1.1499	88.724	2	0	0	0.5
116	1	5.7184	6.8389	87.266	2	-0.6	0	0.5
117	2	1.9289	6.7145	86.36	2	0	0	0.5
118	13	0.85518	2.1351	85.266	2	0	0	0.5
119	2	50	-3.9127	5.7922	1	0	0	0.5
120	8	51.008	-2.8662	1.8632	1	0	0	0.5
121	1	52.474	-3.3351	8.2849	1	-0.6	0	0.5
122	2	53.38	0.23049	6.9956	1	0	0	0.5
123	4	54.388	-1.2323	3.2019	1	0	0	0.5
124	1	55.854	2.1629	8.6727	1	-0.6	0	0.5
125	2	56.76	4.2897	5.5338	1	0	0	0.5
126	4	57.768	0.87645	3.3245	1	0	0	0.5
127	1	59.234	6.8389	5.7548	1	-0.6	0	0.5
128	2	60.14	6.7145	1.9653	1	0	0	0.5
129	4	61.148	2.6545	2.1842	1	0	0	0.5
130	1	62.614	8.9068	0.64573	1	-0.6	0	0.5
131	2	63.52	6.5787	-2.3469	1	0	0	0.5
132	4	64.528	3.4227	0.21654	1	0	0	0.5
133	1	65.994	7.5766	-4.7031	1	-0.6	0	0.5
134	2	66.9	3.9341	-5.7558	1	0	0	0.5
135	4	67.908	2.8877	-1.8269	1	0	0	0.5
136	1	69.374	3.3566	-8.2485	1	-0.6	0	0.5
137	2	70.28	-0.20903	-6.9592	1	0	0	0.5
138	4	71.288	1.2537	-3.1655	1	0	0	0.5
139	1	72.754	-2.1415	-8.6364	1	-0.6	0	0.5
140	2	73.66	-4.2682	-5.4974	1	0	0	0.5
141	4	74.668	-0.85499	-3.2881	1	0	0	0.5
142	1	76.134	-6.8175	-5.7184	1	-0.6	0	0.5
143	2	77.04	-6.693	-1.9289	1	0	0	0.5
144	4	78.048	-2.633	-2.1478	1	0	0	0.5
145	1	79.514	-8.8853	-0.60934	1	-0.6	0	0.5
146	2	80.42	-6.5572	2.3833	1	0	0	0.5
147	4	81.428	-3.4013	-0.18015	1	0	0	0.5
148	1	82.894	-7.5552	4.7395	1	-0.6	0	0.5
149	2	83.8	-3.9127	5.7922	1	0	0	0.5
150	6	84.816	-2.5502	2.0481	1	0	0	0.5
151	1	86.274	-3.3351	8.2849	1	-0.6	0	0.5
152	2	87.18	0.23049	6.9956	1	0	0	0.5
153	5	88.274	-0.16345	2.3084	1	0	0	0.5
154	1	89.654	2.1629	8.6727	1	-0.6	0	0.5
155	2	90.56	4.2897	5.5338	1	0	0	0.5
156	4	91.568	0.87645	3.3245	1	0	0	0.5
157	1	93.034	6.8389	5.7548	1	-0.6	0	0.5
158	2	93.94	6.7145	1.9653	1	0	0	0.5
159	3	95.016	2.1986	1.2413	1	0	0	0.5
160	1	96.414	8.9068	0.64573	1	-0.6	0	0.5
161	2	97.32	6.5787	-2.3469	1	0	0	0.5
162	6	98.336	3.2757	-0.11871	1	0	0	0.5
163	1	99.794	7.5766	-4.7031	1	-0.6	0	0.5
164	2	100.7	3.9341	-5.7558	1	0	0	0.5
165	5	101.79	1.4978	-1.7323	1	0	0	0.5
166	1	103.17	3.3566	-8.2485	1	-0.6	0	0.5
167	2	104.08	-0.20903	-6.9592	1	0	0	0.5
168	3	105.16	0.49789	-2.4405	1	0	0	0.5
169	1	106.55	-2.1415	-8.6364	1	-0.6	0	0.5
170	2	107.46	-4.2682	-5.4974	1	0	0	0.5
171	4	108.47	-0.85499	-3.2881	1	0	0	0.5
172	1	109.93	-6.8175	-5.7184	1	-0.6	0	0.5
173	2	110.84	-6.693	-1.9289	1	0	0	0.5
174	4	111.85	-2.633	-2.1478	1	0	0	0.5
175	1	113.31	-8.8853	-0.60934	1	-0.6	0	0.5
176	2	114.22	-6.5572	2.3833	1	0	0	0.5
177	13	115.31	-2.2213	0.56027	1	0	0	0.5
178	2	150.58	6.5787	2.3833	2	0	0	0.5
179	10	149.56	3.2757	0.15509	2	0	0	0.5
180	1	148.11	7.5766	4.7395	2	-0.6	0	0.5
181	2	147.2	3.9341	5.7922	2	0	0	0.5
182	4	146.19	2.8877	1.8632	2	0	0	0.5
183	1	144.73	3.3566	8.2849	2	-0.6	0	0.5
184	2	143.82	-0.20903	6.9956	2	0	0	0.5
185	6	142.8	0.88947	3.1657	2	0	0	0.5
186	1	141.35	-2.1415	8.6727	2	-0.6	0	0.5
187	2	140.44	-4.2682	5.5338	2	0	0	0.5
188	3	139.36	-1.0404	2.2937	2	0	0	0.5
189	1	137.97	-6.8175	5.7548	2	-0.6	0	0.5
190	2	137.06	-6.693	1.9653	2	0	0	0.5
191	5	135.97	-2.1136	0.89157	2	0	0	0.5
192	1	134.59	-8.8853	0.64573	2	-0.6	0	0.5
193	2	133.68	-6.5572	-2.3469	2	0	0	0.5
194	6	132.66	-3.2543	-0.11871	2	0	0	0.5
195	1	131.21	-7.5552	-4.7031	2	-0.6	0	0.5
196	2	130.3	-3.9127	-5.7558	2	0	0	0.5
197	4	129.29	-2.8662	-1.8269	2	0	0	0.5
198	1	127.83	-3.3351	-8.2485	2	-0.6	0	0.5
199	2	126.92	0.23049	-6.9592	2	0	0	0.5
200	5	125.83	-0.16345	-2.2721	2	0	0	0.5
201	1	124.45	2.1629	-8.6364	2	-0.6	0	0.5
202	2	123.54	4.2897	-5.4974	2	0	0	0.5
203	3	122.46	1.0618	-2.2573	2	0	0	0.5
204	1	121.07	6.8389	-5.7184	2	-0.6	0	0.5
205	2	120.16	6.7145	-1.9289	2	0	0	0.5
206	5	119.07	2.1351	-0.85518	2	0	0	0.5
207	1	117.69	8.9068	-0.60934	2	-0.6	0	0.5
208	2	116.78	6.5787	2.3833	2	0	0	0.5
209	6	115.76	3.2757	0.15509	2	0	0	0.5
210	1	114.31	7.5766	4.7395	2	-0.6	0	0.5
211	2	113.4	3.9341	5.7922	2	0	0	0.5
212	3	112.32	1.8501	1.721	2	0	0	0.5
213	1	110.93	3.3566	8.2849	2	-0.6	0	0.5
214	2	110.02	-0.20903	6.9956	2	0	0	0.5
215	3	108.94	0.49789	2.4769	2	0	0	0.5
216	1	107.55	-2.1415	8.6727	2	-0.6	0	0.5
217	2	106.64	-4.2682	5.5338	2	0	0	0.5
218	4	105.63	-0.85499	3.3245	2	0	0	0.5
219	1	104.17	-6.8175	5.7548	2	-0.6	0	0.5
220	2	103.26	-6.693	1.9653	2	0	0	0.5
221	6	102.24	-2.7112	1.8266	2	0	0	0.5
222	1	100.79	-8.8853	0.64573	2	-0.6	0	0.5
223	2	99.88	-6.5572	-2.3469	2	0	0	0.5
224	5	98.786	-2.2213	-0.52388	2	0	0	0.5
225	1	97.406	-7.5552	-4.7031	2	-0.6	0	0.5
226	2	96.5	-3.9127	-5.7558	2	0	0	0.5
227	4	95.492	-2.8662	-1.8269	2	0	0	0.5
228	1	94.026	-3.3351	-8.2485	2	-0.6	0	0.5
229	2	93.12	0.23049	-6.9592	2	0	0	0.5
230	3	92.044	-0.47643	-2.4405	2	0	0	0.5
231	1	90.646	2.1629	-8.6364	2	-0.6	0	0.5
232	2	89.74	4.2897	-5.4974	2	0	0	0.5
233	6	88.724	1.1499	-3.0447	2	0	0	0.5
234	1	87.266	6.8389	-5.7184	2	-0.6	0	0.5
235	2	86.36	6.7145	-1.9289	2	0	0	0.5
236	13	85.266	2.1351	-0.85518	2	0	0	0.5
237	2	-5.7922	50	3.9127	1	0	0	0.5
238	8	-1.8632	51.008	2.8662	1	0	0	0.5
239	1	-8.2849	52.474	3.3351	1	-0.6	0	0.5
240	2	-6.9956	53.38	-0.23049	1	0	0	0.5
241	4	-3.2019	54.388	1.2323	1	0	0	0.5
242	1	-8.6727	55.854	-2.1629	1	-0.6	0	0.5
243	2	-5.5338	56.76	-4.2897	1	0	0	0.5
244	4	-3.3245	57.768	-0.87645	1	0	0	0.5
245	1	-5.7548	59.234	-6.8389	1	-0.6	0	0.5
246	2	-1.9653	60.14	-6.7145	1	0	0	0.5
247	4	-2.1842	61.148	-2.6545	1	0	0	0.5
248	1	-0.64572	62.614	-8.9068	1	-0.6	0	0.5
249	2	2.3469	63.52	-6.5787	1	0	0	0.5
250	4	-0.21654	64.528	-3.4227	1	0	0	0.5
251	1	4.7031	65.994	-7.5766	1	-0.6	0	0.5
252	2	5.7558	66.9	-3.9341	1	0	0	0.5
253	4	1.8269	67.908	-2.8877	1	0	0	0.5
254	1	8.2485	69.374	-3.3566	1	-0.6	0	0.5
255	2	6.9592	70.28	0.20903	1	0	0	0.5
256	4	3.1655	71.288	-1.2537	1	0	0	0.5
257	1	8.6364	72.754	2.1415	1	-0.6	0	0.5
258	2	5.4974	73.66	4.2682	1	0	0	0.5
259	4	3.2881	74.668	0.85499	1	0	0	0.5
260	1	5.7184	76.134	6.8175	1	-0.6	0	0.5
261	2	1.9289	77.04	6.693	1	0	0	0.5
262	4	2.1478	78.048	2.633	1	0	0	0.5
263	1	0.60934	79.514	8.8853	1	-0.6	0	0.5
264	2	-2.3833	80.42	6.5572	1	0	0	0.5
265	4	0.18016	81.428	3.4013	1	0	0	0.5
266	1	-4.7395	82.894	7.5552	1	-0.6	0	0.5
267	2	-5.7922	83.8	3.9127	1	0	0	0.5
268	6	-2.0481	84.816	2.5502	1	0	0	0.5
269	1	-8.2849	86.274	3.3351	1	-0.6	0	0.5
270	2	-6.9956	87.18	-0.23049	1	0	0	0.5
271	5	-2.3084	88.274	0.16345	1	0	0	0.5
272	1	-8.6727	89.654	-2.1629	1	-0.6	0	0.5
273	2	-5.5338	90.56	-4.2897	1	0	0	0.5
274	4	-3.3245	91.568	-0.87645	1	0	0	0.5
275	1	-5.7548	93.034	-6.8389	1	-0.6	0	0.5
276	2	-1.9653	93.94	-6.7145	1	0	0	0.5
277	3	-1.2413	95.016	-2.1986	1	0	0	0.5
278	1	-0.64572	96.414	-8.9068	1	-0.6	0	0.5
279	2	2.3469	97.32	-6.5787	1	0	0	0.5
280	6	0.11871	98.336	-3.2757	1	0	0	0.5
281	1	4.7031	99.794	-7.5766	1	-0.6	0	0.5
282	2	5.7558	100.7	-3.9341	1	0	0	0.5
283	5	1.7323	101.79	-1.4978	1	0	0	0.5
284	1	8.2485	103.17	-3.3566	1	-0.6	0	0.5
285	2	6.9592	104.08	0.20903	1	0	0	0.5
286	3	2.4406	105.16	-0.49789	1	0	0	0.5
287	1	8.6364	106.55	2.1415	1	-0.6	0	0.5
288	2	5.4974	107.46	4.2682	1	0	0	0.5
289	4	3.2881	108.47	0.85499	1	0	0	0.5
290	1	5.7184	109.93	6.8175	1	-0.6	0	0.5
291	2	1.9289	110.84	6.693	1	0	0	0.5
292	4	2.1478	111.85	2.633	1	0	0	0.5
293	1	0.60934	113.31	8.8853	1	-0.6	0	0.5
294	2	-2.3833	114.22	6.5572	1	0	0	0.5
295	13	-0.56027	115.31	2.2213	1	0	0	0.5
296	2	-2.3833	150.58	-6.5787	2	0	0	0.5
297	10	-0.15509	149.56	-3.2757	2	0	0	0.5
298	1	-4.7395	148.11	-7.5766	2	-0.6	0	0.5
299	2	-5.7922	147.2	-3.9341	2	0	0	0.5
300	4	-1.8632	146.19	-2.8877	2	0	0	0.5
301	1	-8.2849	144.73	-3.3566	2	-0.6	0	0.5
302	2	-6.9956	143.82	0.20903	2	0	0	0.5
303	6	-3.1657	142.8	-0.88947	2	0	0	0.5
304	1	-8.6727	141.35	2.1415	2	-0.6	0	0.5
305	2	-5.5338	140.44	4.2682	2	0	0	0.5
306	3	-2.2937	139.36	1.0404	2	0	0	0.5
307	1	-5.7548	137.97	6.8175	2	-0.6	0	0.5
308	2	-1.9653	137.06	6.693	2	0	0	0.5
309	5	-0.89157	135.97	2.1136	2	0	0	0.5
310	1	-0.64572	134.59	8.8853	2	-0.6	0	0.5
311	2	2.3469	133.68	6.5572	2	0	0	0.5
312	6	0.11871	132.66	3.2543	2	0	0	0.5
313	1	4.7031	131.21	7.5552	2	-0.6	0	0.5
314	2	5.7558	130.3	3.9127	2	0	0	0.5
315	4	1.8269	129.29	2.8662	2	0	0	0.5
316	1	8.2485	127.83	3.3351	2	-0.6	0	0.5
317	2	6.9592	126.92	-0.23049	2	0	0	0.5
318	5	2.2721	125.83	0.16345	2	0	0	0.5
319	1	8.6364	124.45	-2.1629	2	-0.6	0	0.5
320	2	5.4974	123.54	-4.2897	2	0	0	0.5
321	3	2.2573	122.46	-1.0618	2	0	0	0.5
322	1	5.7184	121.07	-6.8389	2	-0.6	0	0.5
323	2	1.9289	120.16	-6.7145	2	0	0	0.5
324	5	0.85518	119.07	-2.1351	2	0	0	0.5
325	1	0.60934	117.69	-8.9068	2	-0.6	0	0.5
326	2	-2.3833	116.78	-6.5787	2	0	0	0.5
327	6	-0.15509	115.76	-3.2757	2	0	0	0.5
328	1	-4.7395	114.31	-7.5766	2	-0.6	0	0.5
329	2	-5.7922	113.4	-3.9341	2	0	0	0.5
330	3	-1.721	112.32	-1.8501	2	0	0	0.5
331	1	-8.2849	110.93	-3.3566	2	-0.6	0	0.5
332	2	-6.9956	110.02	0.20903	2	0	0	0.5
333	3	-2.4769	108.94	-0.49789	2	0	0	0.5
334	1	-8.6727	107.55	2.1415	2	-0.6	0	0.5
335	2	-5.5338	106.64	4.2682	2	0	0	0.5
336	4	-3.3245	105.63	0.85499	2	0	0	0.5
337	1	-5.7548	104.17	6.8175	2	-0.6	0	0.5
338	2	-1.9653	103.26	6.693	2	0	0	0.5
339	6	-1.8266	102.24	2.7112	2	0	0	0.5
340	1	-0.64572	100.79	8.8853	2	-0.6	0	0.5
341	2	2.3469	99.88	6.5572	2	0	0	0.5
342	5	0.52388	98.786	2.2213	2	0	0	0.5
343	1	4.7031	97.406	7.5552	2	-0.6	0	0.5
344	2	5.7558	96.5	3.9127	2	0	0	0.5
345	4	1.8269	95.492	2.8662	2	0	0	0.5
346	1	8.2485	94.026	3.3351	2	-0.6	0	0.5
347	2	6.9592	93.12	-0.23049	2	0	0	0.5
348	3	2.4406	92.044	0.47643	2	0	0	0.5
349	1	8.6364	90.646	-2.1629	2	-0.6	0	0.5
350	2	5.4974	89.74	-4.2897	2	0	0	0.5
351	6	3.0447	88.724	-1.1499	2	0	0	0.5
352	1	5.7184	87.266	-6.8389	2	-0.6	0	0.5
353	2	1.9289	86.36	-6.7145	2	0	0	0.5
354	13	0.85518	85.266	-2.1351	2	0	0	0.5
355	2	-50	-3.9127	-5.7922	1	0	0	0.5
356	8	-51.008	-2.8662	-1.8632	1	0	0	0.5
357	1	-52.474	-3.3351	-8.2849	1	-0.6	0	0.5
358	2	-53.38	0.23049	-6.9956	1	0	0	0.5
359	4	-54.388	-1.2323	-3.2019	1	0	0	0.5
360	1	-55.854	2.1629	-8.6727	1	-0.6	0	0.5
361	2	-56.76	4.2897	-5.5338	1	0	0	0.5
362	4	-57.768	0.87645	-3.3245	1	0	0	0.5
363	1	-59.234	6.8389	-5.7548	1	-0.6	0	0.5
364	2	-60.14	6.7145	-1.9653	1	0	0	0.5
365	4	-61.148	2.6545	-2.1842	1	0	0	0.5
366	1	-62.614	8.9068	-0.64572	1	-0.6	0	0.5
367	2	-63.52	6.5787	2.3469	1	0	0	0.5
368	4	-64.528	3.4227	-0.21654	1	0	0	0.5
369	1	-65.994	7.5766	4.7031	1	-0.6	0	0.5
370	2	-66.9	3.9341	5.7558	1	0	0	0.5
371	4	-67.908	2.8877	1.8269	1	0	0	0.5
372	1	-69.374	3.3566	8.2485	1	-0.6	0	0.5
373	2	-70.28	-0.20903	6.9592	1	0	0	0.5
374	4	-71.288	1.2537	3.1655	1	0	0	0.5
375	1	-72.754	-2.1415	8.6364	1	-0.6	0	0.5
376	2	-73.66	-4.2682	5.4974	1	0	0	0.5
377	4	-74.668	-0.85499	3.2881	1	0	0	0.5
378	1	-76.134	-6.8175	5.7184	1	-0.6	0	0.5
379	2	-77.04	-6.693	1.9289	1	0	0	0.5
380	4	-78.048	-2.633	2.1478	1	0	0	0.5
381	1	-79.514	-8.8853	0.60934	1	-0.6	0	0.5
382	2	-80.42	-6.5572	-2.3833	1	0	0	0.5
383	4	-81.428	-3.4012	0.18016	1	0	0	0.5
384	1	-82.894	-7.5552	-4.7395	1	-0.6	0	0.5
385	2	-83.8	-3.9127	-5.7922	1	0	0	0.5
386	6	-84.816	-2.5502	-2.0481	1	0	0	0.5
387	1	-86.274	-3.3351	-8.2849	1	-0.6	0	0.5
388	2	-87.18	0.23049	-6.9956	1	0	0	0.5
389	5	-88.274	-0.16344	-2.3084	1	0	0	0.5
390	1	-89.654	2.1629	-8.6727	1	-0.6	0	0.5
391	2	-90.56	4.2897	-5.5338	1	0	0	0.5
392	4	-91.568	0.87645	-3.3245	1	0	0	0.5
393	1	-93.034	6.8389	-5.7548	1	-0.6	0	0.5
394	2	-93.94	6.7145	-1.9653	1	0	0	0.5
395	3	-95.016	2.1986	-1.2413	1	0	0	0.5
396	1	-96.414	8.9068	-0.64572	1	-0.6	0	0.5
397	2	-97.32	6.5787	2.3469	1	0	0	0.5
398	6	-98.336	3.2757	0.11871	1	0	0	0.5
399	1	-99.794	7.5766	4.7031	1	-0.6	0	0.5
400	2	-100.7	3.9341	5.7558	1	0	0	0.5
401	5	-101.79	1.4978	1.7323	1	0	0	0.5
402	1	-103.17	3.3566	8.2485	1	-0.6	0	0.5
403	2	-104.08	-0.20903	6.9592	1	0	0	0.5
404	3	-105.16	0.49789	2.4406	1	0	0	0.5
405	1	-106.55	-2.1415	8.6364	1	-0.6	0	0.5
406	2	-107.46	-4.2682	5.4974	1	0	0	0.5
407	4	-108.47	-0.85499	3.2881	1	0	0	0.5
408	1	-109.93	-6.8175	5.7184	1	-0.6	0	0.5
409	2	-110.84	-6.693	1.9289	1	0	0	0.5
410	4	-111.85	-2.633	2.1478	1	0	0	0.5
411	1	-113.31	-8.8853	0.60934	1	-0.6	0	0.5
412	2	-114.22	-6.5572	-2.3833	1	0	0	0.5
413	13	-115.31	-2.2213	-0.56027	1	0	0	0.5
414	2	-150.58	6.5787	-2.3833	2	0	0	0.5
415	10	-149.56	3.2757	-0.15509	2	0	0	0.5
416	1	-148.11	7.5766	-4.7395	2	-0.6	0	0.5
417	2	-147.2	3.9341	-5.7922	2	0	0	0.5
418	4	-146.19	2.8877	-1.8632	2	0	0	0.5
419	1	-144.73	3.3566	-8.2849	2	-0.6	0	0.5
420	2	-143.82	-0.20903	-6.9956	2	0	0	0.5
421	6	-142.8	0.88947	-3.1657	2	0	0	0.5
422	1	-141.35	-2.1415	-8.6727	2	-0.6	0	0.5
423	2	-140.44	-4.2682	-5.5338	2	0	0	0.5
424	3	-139.36	-1.0404	-2.2937	2	0	0	0.5
425	1	-137.97	-6.8175	-5.7548	2	-0.6	0	0.5
426	2	-137.06	-6.693	-1.9653	2	0	0	0.5
427	5	-135.97	-2.1136	-0.89157	2	0	0	0.5
428	1	-134.59	-8.8853	-0.64572	2	-0.6	0	0.5
429	2	-133.68	-6.5572	2.3469	2	0	0	0.5
430	6	-132.66	-3.2543	0.11871	2	0	0	0.5
431	1	-131.21	-7.5552	4.7031	2	-0.6	0	0.5
432	2	-130.3	-3.9127	5.7558	2	0	0	0.5
433	4	-129.29	-2.8662	1.8269	2	0	0	0.5
434	1	-127.83	-3.3351	8.2485	2	-0.6	0	0.5
435	2	-126.92	0.23049	6.9592	2	0	0	0.5
436	5	-125.83	-0.16344	2.2721	2	0	0	0.5
437	1	-124.45	2.1629	8.6364	2	-0.6	0	0.5
438	2	-123.54	4.2897	5.4974	2	0	0	0.5
439	3	-122.46	1.0618	2.2573	2	0	0	0.5
440	1	-121.07	6.8389	5.7184	2	-0.6	0	0.5
441	2	-120.16	6.7145	1.9289	2	0	0	0.5
442	5	-119.07	2.1351	0.85518	2	0	0	0.5
443	1	-117.69	8.9068	0.60934	2	-0.6	0	0.5
444	2	-116.78	6.5787	-2.3833	2	0	0	0.5
445	6	-115.76	3.2757	-0.15509	2	0	0	0.5
446	1	-114.31	7.5766	-4.7395	2	-0.6	0	0.5
447	2	-113.4	3.9341	-5.7922	2	0	0	0.5
448	3	-112.32	1.8501	-1.721	2	0	0	0.5
449	1	-110.93	3.3566	-8.2849	2	-0.6	0	0.5
450	2	-110.02	-0.20903	-6.9956	2	0	0	0.5
451	3	-108.94	0.49789	-2.4769	2	0	0	0.5
452	1	-107.55	-2.1415	-8.6727	2	-0.6	0	0.5
453	2	-106.64	-4.2682	-5.5338	2	0	0	0.5
454	4	-105.63	-0.85499	-3.3245	2	0	0	0.5
455	1	-104.17	-6.8175	-5.7548	2	-0.6	0	0.5
456	2	-103.26	-6.693	-1.9653	2	0	0	0.5
457	6	-102.24	-2.7112	-1.8266	2	0	0	0.5
458	1	-100.79	-8.8853	-0.64572	2	-0.6	0	0.5
459	2	-99.88	-6.5572	2.3469	2	0	0	0.5
460	5	-98.786	-2.2213	0.52388	2	0	0	0.5
461	1	-97.406	-7.5552	4.7031	2	-0.6	0	0.5
462	2	-96.5	-3.9127	5.7558	2	0	0	0.5
463	4	-95.492	-2.8662	1.8269	2	0	0	0.5
464	1	-94.026	-3.3351	8.2485	2	-0.6	0	0.5
465	2	-93.12	0.23049	6.9592	2	0	0	0.5
466	3	-92.044	-0.47643	2.4406	2	0	0	0.5
467	1	-90.646	2.1629	8.6364	2	-0.6	0	0.5
468	2	-89.74	4.2897	5.4974	2	0	0	0.5
469	6	-88.724	1.1499	3.0447	2	0	0	0.5
470	1	-87.266	6.8389	5.7184	2	-0.6	0	0.5
471	2	-86.36	6.7145	1.9289	2	0	0	0.5
472	13	-85.266	2.1351	0.85518	2	0	0	0.5
473	2	-5.7922	-50	-3.9127	1	0	0	0.5
474	8	-1.8632	-51.008	-2.8662	1	0	0	0.5
475	1	-8.2849	-52.474	-3.3351	1	-0.6	0	0.5
476	2	-6.9956	-53.38	0.23049	1	0	0	0.5
477	4	-3.2019	-54.388	-1.2323	1	0	0	0.5
478	1	-8.6727	-55.854	2.1629	1	-0.6	0	0.5
479	2	-5.5338	-56.76	4.2897	1	0	0	0.5
480	4	-3.3245	-57.768	0.87645	1	0	0	0.5
481	1	-5.7548	-59.234	6.8389	1	-0.6	0	0.5
482	2	-1.9653	-60.14	6.7145	1	0	0	0.5
483	4	-2.1842	-61.148	2.6545	1	0	0	0.5
484	1	-0.64573	-62.614	8.9068	1	-0.6	0	0.5
485	2	2.3469	-63.52	6.5787	1	0	0	0.5
486	4	-0.21654	-64.528	3.4227	1	0	0	0.5
487	1	4.7031	-65.994	7.5766	1	-0.6	0	0.5
488	2	5.7558	-66.9	3.9341	1	0	0	0.5
489	4	1.8269	-67.908	2.8877	1	0	0	0.5
490	1	8.2485	-69.374	3.3566	1	-0.6	0	0.5
491	2	6.9592	-70.28	-0.20903	1	0	0	0.5
492	4	3.1655	-71.288	1.2537	1	0	0	0.5
493	1	8.6364	-72.754	-2.1415	1	-0.6	0	0.5
494	2	5.4974	-73.66	-4.2682	1	0	0	0.5
495	4	3.2881	-74.668	-0.85499	1	0	0	0.5
496	1	5.7184	-76.134	-6.8175	1	-0.6	0	0.5
497	2	1.9289	-77.04	-6.693	1	0	0	0.5
498	4	2.1478	-78.048	-2.633	1	0	0	0.5
499	1	0.60934	-79.514	-8.8853	1	-0.6	0	0.5
500	2	-2.3833	-80.42	-6.5572	1	0	0	0.5
501	4	0.18015	-81.428	-3.4012	1	0	0	0.5
502	1	-4.7395	-82.894	-7.5552	1	-0.6	0	0.5
503	2	-5.7922	-83.8	-3.9127	1	0	0	0.5
504	6	-2.0481	-84.816	-2.5502	1	0	0	0.5
505	1	-8.2849	-86.274	-3.3351	1	-0.6	0	0.5
506	2	-6.9956	-87.18	0.23049	1	0	0	0.5
507	5	-2.3084	-88.274	-0.16344	1	0	0	0.5
508	1	-8.6727	-89.654	2.1629	1	-0.6	0	0.5
509	2	-5.5338	-90.56	4.2897	1	0	0	0.5
510	4	-3.3245	-91.568	0.87645	1	0	0	0.5
511	1	-5.7548	-93.034	6.8389	1	-0.6	0	0.5
512	2	-1.9653	-93.94	6.7145	1	0	0	0.5
513	3	-1.2413	-95.016	2.1986	1	0	0	0.5
514	1	-0.64573	-96.414	8.9068	1	-0.6	0	0.5
515	2	2.3469	-97.32	6.5787	1	0	0	0.5
516	6	0.11871	-98.336	3.2757	1	0	0	0.5
517	1	4.7031	-99.794	7.5766	1	-0.6	0	0.5
518	2	5.7558	-100.7	3.9341	1	0	0	0.5
519	5	1.7323	-101.79	1.4978	1	0	0	0.5
520	1	8.2485	-103.17	3.3566	1	-0.6	0	0.5
521	2	6.9592	-104.08	-0.20903	1	0	0	0.5
522	3	2.4405	-105.16	0.49789	1	0	0	0.5
523	1	8.6364	-106.55	-2.1415	1	-0.6	0	0.5
524	2	5.4974	-107.46	-4.2682	1	0	0	0.5
525	4	3.2881	-108.47	-0.85499	1	0	0	0.5
526	1	5.7184	-109.93	-6.8175	1	-0.6	0	0.5
527	2	1.9289	-110.84	-6.693	1	0	0	0.5
528	4	2.1478	-111.85	-2.633	1	0	0	0.5
529	1	0.60934	-113.31	-8.8853	1	-0.6	0	0.5
530	2	-2.3833	-114.22	-6.5572	1	0	0	0.5
531	13	-0.56027	-115.31	-2.2213	1	0	0	0.5
532	2	-2.3833	-150.58	6.5787	2	0	0	0.5
533	10	-0.15509	-149.56	3.2757	2	0	0	0.5
534	1	-4.7395	-148.11	7.5766	2	-0.6	0	0.5
535	2	-5.7922	-147.2	3.9341	2	0	0	0.5
536	4	-1.8632	-146.19	2.8877	2	0	0	0.5
537	1	-8.2849	-144.73	3.3566	2	-0.6	0	0.5
538	2	-6.9956	-143.82	-0.20903	2	0	0	0.5
539	6	-3.1657	-142.8	0.88947	2	0	0	0.5
540	1	-8.6727	-141.35	-2.1415	2	-0.6	0	0.5
541	2	-5.5338	-140.44	-4.2682	2	0	0	0.5
542	3	-2.2937	-139.36	-1.0404	2	0	0	0.5
543	1	-5.7548	-137.97	-6.8175	2	-0.6	0	0.5
544	2	-1.9653	-137.06	-6.693	2	0	0	0.5
545	5	-0.89157	-135.97	-2.1136	2	0	0	0.5
546	1	-0.64573	-134.59	-8.8853	2	-0.6	0	0.5
547	2	2.3469	-133.68	-6.5572	2	0	0	0.5
548	6	0.11871	-132.66	-3.2543	2	0	0	0.5
549	1	4.7031	-131.21	-7.5552	2	-0.6	0	0.5
550	2	5.7558	-130.3	-3.9127	2	0	0	0.5
551	4	1.8269	-129.29	-2.8662	2	0	0	0.5
552	1	8.2485	-127.83	-3.3351	2	-0.6	0	0.5
553	2	6.9592	-126.92	0.23049	2	0	0	0.5
554	5	2.2721	-125.83	-0.16344	2	0	0	0.5
555	1	8.6364	-124.45	2.1629	2	-0.6	0	0.5
556	2	5.4974	-123.54	4.2897	2	0	0	0.5
557	3	2.2573	-122.46	1.0618	2	0	0	0.5
558	1	5.7184	-121.07	6.8389	2	-0.6	0	0.5
559	2	1.9289	-120.16	6.7145	2	0	0	0.5
560	5	0.85518	-119.07	2.1351	2	0	0	0.5
561	1	0.60934	-117.69	8.9068	2	-0.6	0	0.5
562	2	-2.3833	-116.78	6.5787	2	0	0	0.5
563	6	-0.15509	-115.76	3.2757	2	0	0	0.5
564	1	-4.7395	-114.31	7.5766	2	-0.6	0	0.5
565	2	-5.7922	-113.4	3.9341	2	0	0	0.5
566	3	-1.721	-112.32	1.8501	2	0	0	0.5
567	1	-8.2849	-110.93	3.3566	2	-0.6	0	0.5
568	2	-6.9956	-110.02	-0.20903	2	0	0	0.5
569	3	-2.4769	-108.94	0.49789	2	0	0	0.5
570	1	-8.6727	-107.55	-2.1415	2	-0.6	0	0.5
571	2	-5.5338	-106.64	-4.2682	2	0	0	0.5
572	4	-3.3245	-105.63	-0.85499	2	0	0	0.5
573	1	-5.7548	-104.17	-6.8175	2	-0.6	0	0.5
574	2	-1.9653	-103.26	-6.693	2	0	0	0.5
575	6	-1.8266	-102.24	-2.7112	2	0	0	0.5
576	1	-0.64573	-100.79	-8.8853	2	-0.6	0	0.5
577	2	2.3469	-99.88	-6.5572	2	0	0	0.5
578	5	0.52388	-98.786	-2.2213	2	0	0	0.5
579	1	4.7031	-97.406	-7.5552	2	-0.6	0	0.5
580	2	5.7558	-96.5	-3.9127	2	0	0	0.5
581	4	1.8269	-95.492	-2.8662	2	0	0	0.5
582	1	8.2485	-94.026	-3.3351	2	-0.6	0	0.5
583	2	6.9592	-93.12	0.23049	2	0	0	0.5
584	3	2.4405	-92.044	-0.47643	2	0	0	0.5
585	1	8.6364	-90.646	2.1629	2	-0.6	0	0.5
586	2	5.4974	-89.74	4.2897	2	0	0	0.5
587	6	3.0447	-88.724	1.1499	2	0	0	0.5
588	1	5.7184	-87.266	6.8389	2	-0.6	0	0.5
589	2	1.9289	-86.36	6.7145	2	0	0	0.5
590	13	0.85518	-85.266	2.1351	2	0	0	0.5
591	2	5.7922	3.9127	-50	1	0	0	0.5
592	8	1.8632	2.8662	-51.008	1	0	0	0.5
593	1	8.2849	3.3351	-52.474	1	-0.6	0	0.5
594	2	6.9956	-0.23049	-53.38	1	0	0	0.5
595	4	3.2019	1.2323	-54.388	1	0	0	0.5
596	1	8.6727	-2.1629	-55.854	1	-0.6	0	0.5
597	2	5.5338	-4.2897	-56.76	1	0	0	0.5
598	4	3.3245	-0.87645	-57.768	1	0	0	0.5
599	1	5.7548	-6.8389	-59.234	1	-0.6	0	0.5
600	2	1.9653	-6.7145	-60.14	1	0	0	0.5
601	4	2.1842	-2.6545	-61.148	1	0	0	0.5
602	1	0.64572	-8.9068	-62.614	1	-0.6	0	0.5
603	2	-2.3469	-6.5787	-63.52	1	0	0	0.5
604	4	0.21654	-3.4227	-64.528	1	0	0	0.5
605	1	-4.7031	-7.5766	-65.994	1	-0.6	0	0.5
606	2	-5.7558	-3.9341	-66.9	1	0	0	0.5
607	4	-1.8269	-2.8877	-67.908	1	0	0	0.5
608	1	-8.2485	-3.3566	-69.374	1	-0.6	0	0.5
609	2	-6.9592	0.20903	-70.28	1	0	0	0.5
610	4	-3.1655	-1.2537	-71.288	1	0	0	0.5
611	1	-8.6364	2.1415	-72.754	1	-0.6	0	0.5
612	2	-5.4974	4.2682	-73.66	1	0	0	0.5
613	4	-3.2881	0.85499	-74.668	1	0	0	0.5
614	1	-5.7184	6.8175	-76.134	1	-0.6	0	0.5
615	2	-1.9289	6.693	-77.04	1	0	0	0.5
616	4	-2.1478	2.633	-78.048	1	0	0	0.5
617	1	-0.60934	8.8853	-79.514	1	-0.6	0	0.5
618	2	2.3833	6.5572	-80.42	1	0	0	0.5
619	4	-0.18016	3.4013	-81.428	1	0	0	0.5
620	1	4.7395	7.5552	-82.894	1	-0.6	0	0.5
621	2	5.7922	3.9127	-83.8	1	0	0	0.5
622	6	2.0481	2.5502	-84.816	1	0	0	0.5
623	1	8.2849	3.3351	-86.274	1	-0.6	0	0.5
624	2	6.9956	-0.23049	-87.18	1	0	0	0.5
625	5	2.3084	0.16345	-88.274	1	0	0	0.5
626	1	8.6727	-2.1629	-89.654	1	-0.6	0	0.5
627	2	5.5338	-4.2897	-90.56	1	0	0	0.5
628	4	3.3245	-0.87645	-91.568	1	0	0	0.5
629	1	5.7548	-6.8389	-93.034	1	-0.6	0	0.5
630	2	1.9653	-6.7145	-93.94	1	0	0	0.5
631	3	1.2413	-2.1986	-95.016	1	0	0	0.5
632	1	0.64572	-8.9068	-96.414	1	-0.6	0	0.5
633	2	-2.3469	-6.5787	-97.32	1	0	0	0.5
634	6	-0.11871	-3.2757	-98.336	1	0	0	0.5
635	1	-4.7031	-7.5766	-99.794	1	-0.6	0	0.5
636	2	-5.7558	-3.9341	-100.7	1	0	0	0.5
637	5	-1.7323	-1.4978	-101.79	1	0	0	0.5
638	1	-8.2485	-3.3566	-103.17	1	-0.6	0	0.5
639	2	-6.9592	0.20903	-104.08	1	0	0	0.5
640	3	-2.4405	-0.49789	-105.16	1	0	0	0.5
641	1	-8.6364	2.1415	-106.55	1	-0.6	0	0.5
642	2	-5.4974	4.2682	-107.46	1	0	0	0.5
643	4	-3.2881	0.85499	-108.47	1	0	0	0.5
644	1	-5.7184	6.8175	-109.93	1	-0.6	0	0.5
645	2	-1.9289	6.693	-110.84	1	0	0	0.5
646	4	-2.1478	2.633	-111.85	1	0	0	0.5
647	1	-0.60934	8.8853	-113.31	1	-0.6	0	0.5
648	2	2.3833	6.5572	-114.22	1	0	0	0.5
649	13	0.56027	2.2213	-115.31	1	0	0	0.5
650	2	2.3833	-6.5787	-150.58	2	0	0	0.5
651	10	0.15509	-3.2757	-149.56	2	0	0	0.5
652	1	4.7395	-7.5766	-148.11	2	-0.6	0	0.5
653	2	5.7922	-3.9341	-147.2	2	0	0	0.5
654	4	1.8632	-2.8877	-146.19	2	0	0	0.5
655	1	8.2849	-3.3566	-144.73	2	-0.6	0	0.5
656	2	6.9956	0.20903	-143.82	2	0	0	0.5
657	6	3.1657	-0.88947	-142.8	2	0	0	0.5
658	1	8.6727	2.1415	-141.35	2	-0.6	0	0.5
659	2	5.5338	4.2682	-140.44	2	0	0	0.5
660	3	2.2937	1.0404	-139.36	2	0	0	0.5
661	1	5.7548	6.8175	-137.97	2	-0.6	0	0.5
662	2	1.9653	6.693	-137.06	2	0	0	0.5
663	5	0.89157	2.1136	-135.97	2	0	0	0.5
664	1	0.64572	8.8853	-134.59	2	-0.6	0	0.5
665	2	-2.3469	6.5572	-133.68	2	0	0	0.5
666	6	-0.11871	3.2543	-132.66	2	0	0	0.5
667	1	-4.7031	7.5552	-131.21	2	-0.6	0	0.5
668	2	-5.7558	3.9127	-130.3	2	0	0	0.5
669	4	-1.8269	2.8662	-129.29	2	0	0	0.5
670	1	-8.2485	3.3351	-127.83	2	-0.6	0	0.5
671	2	-6.9592	-0.23049	-126.92	2	0	0	0.5
672	5	-2.2721	0.16345	-125.83	2	0	0	0.5
673	1	-8.6364	-2.1629	-124.45	2	-0.6	0	0.5
674	2	-5.4974	-4.2897	-123.54	2	0	0	0.5
675	3	-2.2573	-1.0618	-122.46	2	0	0	0.5
676	1	-5.7184	-6.8389	-121.07	2	-0.6	0	0.5
677	2	-1.9289	-6.7145	-120.16	2	0	0	0.5
678	5	-0.85518	-2.1351	-119.07	2	0	0	0.5
679	1	-0.60934	-8.9068	-117.69	2	-0.6	0	0.5
680	2	2.3833	-6.5787	-116.78	2	0	0	0.5
681	6	0.15509	-3.2757	-115.76	2	0	0	0.5
682	1	4.7395	-7.5766	-114.31	2	-0.6	0	0.5
683	2	5.7922	-3.9341	-113.4	2	0	0	0.5
684	3	1.721	-1.8501	-112.32	2	0	0	0.5
685	1	8.2849	-3.3566	-110.93	2	-0.6	0	0.5
686	2	6.9956	0.20903	-110.02	2	0	0	0.5
687	3	2.4769	-0.49789	-108.94	2	0	0	0.5
688	1	8.6727	2.1415	-107.55	2	-0.6	0	0.5
689	2	5.5338	4.2682	-106.64	2	0	0	0.5
690	4	3.3245	0.85499	-105.63	2	0	0	0.5
691	1	5.7548	6.8175	-104.17	2	-0.6	0	0.5
692	2	1.9653	6.693	-103.26	2	0	0	0.5
693	6	1.8266	2.7112	-102.24	2	0	0	0.5
694	1	0.64572	8.8853	-100.79	2	-0.6	0	0.5
695	2	-2.3469	6.5572	-99.88	2	0	0	0.5
696	5	-0.52388	2.2213	-98.786	2	0	0	0.5
697	1	-4.7031	7.5552	-97.406	2	-0.6	0	0.5
698	2	-5.7558	3.9127	-96.5	2	0	0	0.5
699	4	-1.8269	2.8662	-95.492	2	0	0	0.5
700	1	-8.2485	3.3351	-94.026	2	-0.6	0	0.5
701	2	-6.9592	-0.23049	-93.12	2	0	0	0.5
702	3	-2.4405	0.47643	-92.044	2	0	0	0.5
703	1	-8.6364	-2.1629	-90.646	2	-0.6	0	0.5
704	2	-5.4974	-4.2897	-89.74	2	0	0	0.5
705	6	-3.0447	-1.1499	-88.724	2	0	0	0.5